# vtk DataFile Version 3.0
STAPpp FEM Output
ASCII
DATASET UNSTRUCTURED_GRID

POINTS 512 double
0.000000000000e+00 0.000000000000e+00 0.000000000000e+00
2.500000000000e-01 0.000000000000e+00 0.000000000000e+00
2.500000000000e-01 2.500000000000e-01 0.000000000000e+00
0.000000000000e+00 2.500000000000e-01 0.000000000000e+00
-3.818004912825e-06 -3.818004912825e-06 2.499915777303e-01
2.499984227661e-01 -3.970916598573e-06 2.499920853671e-01
2.499984152045e-01 2.499984152045e-01 2.499926168913e-01
-3.970916598573e-06 2.499984227661e-01 2.499920853671e-01
2.500000000000e-01 0.000000000000e+00 0.000000000000e+00
5.000000000000e-01 0.000000000000e+00 0.000000000000e+00
5.000000000000e-01 2.500000000000e-01 0.000000000000e+00
2.500000000000e-01 2.500000000000e-01 0.000000000000e+00
2.499984227661e-01 -3.970916598573e-06 2.499920853671e-01
5.000000000000e-01 -4.156437743097e-06 2.499920244882e-01
5.000000000000e-01 2.499983480790e-01 2.499925554403e-01
2.499984152045e-01 2.499984152045e-01 2.499926168913e-01
5.000000000000e-01 0.000000000000e+00 0.000000000000e+00
7.500000000000e-01 0.000000000000e+00 0.000000000000e+00
7.500000000000e-01 2.500000000000e-01 0.000000000000e+00
5.000000000000e-01 2.500000000000e-01 0.000000000000e+00
5.000000000000e-01 -4.156437743097e-06 2.499920244882e-01
7.500015772339e-01 -3.970916598573e-06 2.499920853671e-01
7.500015847955e-01 2.499984152045e-01 2.499926168913e-01
5.000000000000e-01 2.499983480790e-01 2.499925554403e-01
7.500000000000e-01 0.000000000000e+00 0.000000000000e+00
1.000000000000e+00 0.000000000000e+00 0.000000000000e+00
1.000000000000e+00 2.500000000000e-01 0.000000000000e+00
7.500000000000e-01 2.500000000000e-01 0.000000000000e+00
7.500015772339e-01 -3.970916598573e-06 2.499920853671e-01
1.000003818005e+00 -3.818004912825e-06 2.499915777303e-01
1.000003970917e+00 2.499984227661e-01 2.499920853671e-01
7.500015847955e-01 2.499984152045e-01 2.499926168913e-01
0.000000000000e+00 2.500000000000e-01 0.000000000000e+00
2.500000000000e-01 2.500000000000e-01 0.000000000000e+00
2.500000000000e-01 5.000000000000e-01 0.000000000000e+00
0.000000000000e+00 5.000000000000e-01 0.000000000000e+00
-3.970916598573e-06 2.499984227661e-01 2.499920853671e-01
2.499984152045e-01 2.499984152045e-01 2.499926168913e-01
2.499983480790e-01 5.000000000000e-01 2.499925554403e-01
-4.156437743097e-06 5.000000000000e-01 2.499920244882e-01
2.500000000000e-01 2.500000000000e-01 0.000000000000e+00
5.000000000000e-01 2.500000000000e-01 0.000000000000e+00
5.000000000000e-01 5.000000000000e-01 0.000000000000e+00
2.500000000000e-01 5.000000000000e-01 0.000000000000e+00
2.499984152045e-01 2.499984152045e-01 2.499926168913e-01
5.000000000000e-01 2.499983480790e-01 2.499925554403e-01
5.000000000000e-01 5.000000000000e-01 2.499924921761e-01
2.499983480790e-01 5.000000000000e-01 2.499925554403e-01
5.000000000000e-01 2.500000000000e-01 0.000000000000e+00
7.500000000000e-01 2.500000000000e-01 0.000000000000e+00
7.500000000000e-01 5.000000000000e-01 0.000000000000e+00
5.000000000000e-01 5.000000000000e-01 0.000000000000e+00
5.000000000000e-01 2.499983480790e-01 2.499925554403e-01
7.500015847955e-01 2.499984152045e-01 2.499926168913e-01
7.500016519210e-01 5.000000000000e-01 2.499925554403e-01
5.000000000000e-01 5.000000000000e-01 2.499924921761e-01
7.500000000000e-01 2.500000000000e-01 0.000000000000e+00
1.000000000000e+00 2.500000000000e-01 0.000000000000e+00
1.000000000000e+00 5.000000000000e-01 0.000000000000e+00
7.500000000000e-01 5.000000000000e-01 0.000000000000e+00
7.500015847955e-01 2.499984152045e-01 2.499926168913e-01
1.000003970917e+00 2.499984227661e-01 2.499920853671e-01
1.000004156438e+00 5.000000000000e-01 2.499920244882e-01
7.500016519210e-01 5.000000000000e-01 2.499925554403e-01
0.000000000000e+00 5.000000000000e-01 0.000000000000e+00
2.500000000000e-01 5.000000000000e-01 0.000000000000e+00
2.500000000000e-01 7.500000000000e-01 0.000000000000e+00
0.000000000000e+00 7.500000000000e-01 0.000000000000e+00
-4.156437743097e-06 5.000000000000e-01 2.499920244882e-01
2.499983480790e-01 5.000000000000e-01 2.499925554403e-01
2.499984152045e-01 7.500015847955e-01 2.499926168913e-01
-3.970916598573e-06 7.500015772339e-01 2.499920853671e-01
2.500000000000e-01 5.000000000000e-01 0.000000000000e+00
5.000000000000e-01 5.000000000000e-01 0.000000000000e+00
5.000000000000e-01 7.500000000000e-01 0.000000000000e+00
2.500000000000e-01 7.500000000000e-01 0.000000000000e+00
2.499983480790e-01 5.000000000000e-01 2.499925554403e-01
5.000000000000e-01 5.000000000000e-01 2.499924921761e-01
5.000000000000e-01 7.500016519210e-01 2.499925554403e-01
2.499984152045e-01 7.500015847955e-01 2.499926168913e-01
5.000000000000e-01 5.000000000000e-01 0.000000000000e+00
7.500000000000e-01 5.000000000000e-01 0.000000000000e+00
7.500000000000e-01 7.500000000000e-01 0.000000000000e+00
5.000000000000e-01 7.500000000000e-01 0.000000000000e+00
5.000000000000e-01 5.000000000000e-01 2.499924921761e-01
7.500016519210e-01 5.000000000000e-01 2.499925554403e-01
7.500015847955e-01 7.500015847955e-01 2.499926168913e-01
5.000000000000e-01 7.500016519210e-01 2.499925554403e-01
7.500000000000e-01 5.000000000000e-01 0.000000000000e+00
1.000000000000e+00 5.000000000000e-01 0.000000000000e+00
1.000000000000e+00 7.500000000000e-01 0.000000000000e+00
7.500000000000e-01 7.500000000000e-01 0.000000000000e+00
7.500016519210e-01 5.000000000000e-01 2.499925554403e-01
1.000004156438e+00 5.000000000000e-01 2.499920244882e-01
1.000003970917e+00 7.500015772339e-01 2.499920853671e-01
7.500015847955e-01 7.500015847955e-01 2.499926168913e-01
0.000000000000e+00 7.500000000000e-01 0.000000000000e+00
2.500000000000e-01 7.500000000000e-01 0.000000000000e+00
2.500000000000e-01 1.000000000000e+00 0.000000000000e+00
0.000000000000e+00 1.000000000000e+00 0.000000000000e+00
-3.970916598573e-06 7.500015772339e-01 2.499920853671e-01
2.499984152045e-01 7.500015847955e-01 2.499926168913e-01
2.499984227661e-01 1.000003970917e+00 2.499920853671e-01
-3.818004912825e-06 1.000003818005e+00 2.499915777303e-01
2.500000000000e-01 7.500000000000e-01 0.000000000000e+00
5.000000000000e-01 7.500000000000e-01 0.000000000000e+00
5.000000000000e-01 1.000000000000e+00 0.000000000000e+00
2.500000000000e-01 1.000000000000e+00 0.000000000000e+00
2.499984152045e-01 7.500015847955e-01 2.499926168913e-01
5.000000000000e-01 7.500016519210e-01 2.499925554403e-01
5.000000000000e-01 1.000004156438e+00 2.499920244882e-01
2.499984227661e-01 1.000003970917e+00 2.499920853671e-01
5.000000000000e-01 7.500000000000e-01 0.000000000000e+00
7.500000000000e-01 7.500000000000e-01 0.000000000000e+00
7.500000000000e-01 1.000000000000e+00 0.000000000000e+00
5.000000000000e-01 1.000000000000e+00 0.000000000000e+00
5.000000000000e-01 7.500016519210e-01 2.499925554403e-01
7.500015847955e-01 7.500015847955e-01 2.499926168913e-01
7.500015772339e-01 1.000003970917e+00 2.499920853671e-01
5.000000000000e-01 1.000004156438e+00 2.499920244882e-01
7.500000000000e-01 7.500000000000e-01 0.000000000000e+00
1.000000000000e+00 7.500000000000e-01 0.000000000000e+00
1.000000000000e+00 1.000000000000e+00 0.000000000000e+00
7.500000000000e-01 1.000000000000e+00 0.000000000000e+00
7.500015847955e-01 7.500015847955e-01 2.499926168913e-01
1.000003970917e+00 7.500015772339e-01 2.499920853671e-01
1.000003818005e+00 1.000003818005e+00 2.499915777303e-01
7.500015772339e-01 1.000003970917e+00 2.499920853671e-01
-3.818004912825e-06 -3.818004912825e-06 2.499915777303e-01
2.499984227661e-01 -3.970916598573e-06 2.499920853671e-01
2.499984152045e-01 2.499984152045e-01 2.499926168913e-01
-3.970916598573e-06 2.499984227661e-01 2.499920853671e-01
-3.018915830652e-06 -3.018915830652e-06 4.999864767571e-01
2.499983356471e-01 -3.172430621804e-06 4.999860986808e-01
2.499983237578e-01 2.499983237578e-01 4.999856936772e-01
-3.172430621804e-06 2.499983356471e-01 4.999860986808e-01
2.499984227661e-01 -3.970916598573e-06 2.499920853671e-01
5.000000000000e-01 -4.156437743097e-06 2.499920244882e-01
5.000000000000e-01 2.499983480790e-01 2.499925554403e-01
2.499984152045e-01 2.499984152045e-01 2.499926168913e-01
2.499983356471e-01 -3.172430621804e-06 4.999860986808e-01
5.000000000000e-01 -3.236599566983e-06 4.999861508772e-01
5.000000000000e-01 2.499982746737e-01 4.999857384610e-01
2.499983237578e-01 2.499983237578e-01 4.999856936772e-01
5.000000000000e-01 -4.156437743097e-06 2.499920244882e-01
7.500015772339e-01 -3.970916598573e-06 2.499920853671e-01
7.500015847955e-01 2.499984152045e-01 2.499926168913e-01
5.000000000000e-01 2.499983480790e-01 2.499925554403e-01
5.000000000000e-01 -3.236599566983e-06 4.999861508772e-01
7.500016643529e-01 -3.172430621804e-06 4.999860986808e-01
7.500016762422e-01 2.499983237578e-01 4.999856936772e-01
5.000000000000e-01 2.499982746737e-01 4.999857384610e-01
7.500015772339e-01 -3.970916598573e-06 2.499920853671e-01
1.000003818005e+00 -3.818004912825e-06 2.499915777303e-01
1.000003970917e+00 2.499984227661e-01 2.499920853671e-01
7.500015847955e-01 2.499984152045e-01 2.499926168913e-01
7.500016643529e-01 -3.172430621804e-06 4.999860986808e-01
1.000003018916e+00 -3.018915830652e-06 4.999864767571e-01
1.000003172431e+00 2.499983356471e-01 4.999860986808e-01
7.500016762422e-01 2.499983237578e-01 4.999856936772e-01
-3.970916598573e-06 2.499984227661e-01 2.499920853671e-01
2.499984152045e-01 2.499984152045e-01 2.499926168913e-01
2.499983480790e-01 5.000000000000e-01 2.499925554403e-01
-4.156437743097e-06 5.000000000000e-01 2.499920244882e-01
-3.172430621804e-06 2.499983356471e-01 4.999860986808e-01
2.499983237578e-01 2.499983237578e-01 4.999856936772e-01
2.499982746737e-01 5.000000000000e-01 4.999857384610e-01
-3.236599566983e-06 5.000000000000e-01 4.999861508772e-01
2.499984152045e-01 2.499984152045e-01 2.499926168913e-01
[...]
POINT_DATA 512
SCALARS STRESS_I double 1
LOOKUP_TABLE default
-1.564024090275e+05
-1.469755403915e+05
-1.371050833571e+05
-1.469755403915e+05
-7.317971468616e+04
-6.105368107322e+04
-4.848405906188e+04
-6.105368107322e+04
-1.469755403915e+05
-1.481060684184e+05
-1.382462331774e+05
-1.371050833571e+05
-7.337563422930e+04
-7.230754204318e+04
-6.230728615713e+04
-6.336475654979e+04
-1.481060684184e+05
-1.469755403915e+05
-1.371050833571e+05
-1.382462331774e+05
-7.230754204318e+04
-7.337563422930e+04
-6.336475654979e+04
-6.230728615713e+04
-1.469755403915e+05
-1.564024090275e+05
-1.469755403915e+05
-1.371050833571e+05
-6.105368107322e+04
-7.317971468616e+04
-6.105368107322e+04
-4.848405906188e+04
-1.469755403915e+05
-1.371050833571e+05
-1.382462331774e+05
-1.481060684184e+05
-7.337563422930e+04
-6.336475654979e+04
-6.230728615713e+04
-7.230754204318e+04
-1.371050833571e+05
-1.382462331774e+05
-1.394210563255e+05
-1.382462331774e+05
-7.824545403771e+04
-7.814007746891e+04
-7.806837422784e+04
-7.814007746891e+04
-1.382462331774e+05
-1.371050833571e+05
-1.382462331774e+05
-1.394210563255e+05
-7.814007746891e+04
-7.824545403771e+04
-7.814007746891e+04
-7.806837422784e+04
-1.371050833571e+05
-1.469755403915e+05
-1.481060684184e+05
-1.382462331774e+05
-6.336475654979e+04
-7.337563422930e+04
-7.230754204318e+04
-6.230728615713e+04
-1.481060684184e+05
-1.382462331774e+05
-1.371050833571e+05
-1.469755403915e+05
-7.230754204318e+04
-6.230728615713e+04
-6.336475654979e+04
-7.337563422930e+04
-1.382462331774e+05
-1.394210563255e+05
-1.382462331774e+05
-1.371050833571e+05
-7.814007746891e+04
-7.806837422784e+04
-7.814007746891e+04
-7.824545403771e+04
-1.394210563255e+05
-1.382462331774e+05
-1.371050833571e+05
-1.382462331774e+05
-7.806837422784e+04
-7.814007746891e+04
-7.824545403771e+04
-7.814007746891e+04
-1.382462331774e+05
-1.481060684184e+05
-1.469755403915e+05
-1.371050833571e+05
-6.230728615713e+04
-7.230754204318e+04
-7.337563422930e+04
-6.336475654979e+04
-1.469755403915e+05
-1.371050833571e+05
-1.469755403915e+05
-1.564024090275e+05
-6.105368107322e+04
-4.848405906188e+04
-6.105368107322e+04
-7.317971468616e+04
-1.371050833571e+05
-1.382462331774e+05
-1.481060684184e+05
-1.469755403915e+05
-6.336475654979e+04
-6.230728615713e+04
-7.230754204318e+04
-7.337563422930e+04
-1.382462331774e+05
-1.371050833571e+05
-1.469755403915e+05
-1.481060684184e+05
-6.230728615713e+04
-6.336475654979e+04
-7.337563422930e+04
-7.230754204318e+04
-1.371050833571e+05
-1.469755403915e+05
-1.564024090275e+05
-1.469755403915e+05
-4.848405906188e+04
-6.105368107322e+04
-7.317971468616e+04
-6.105368107322e+04
-1.150289776177e+04
-2.525151831409e+04
-3.994376855880e+04
-2.525151831409e+04
-4.441684929129e+04
-5.823463371530e+04
-7.299604783170e+04
-5.823463371530e+04
-3.757347147017e+04
-3.327503049510e+04
-5.065305503847e+04
-5.482446604672e+04
-5.248180121323e+04
-5.010185392712e+04
-6.739951486982e+04
-6.965243218912e+04
-3.327503049510e+04
-3.757347147017e+04
-5.482446604672e+04
-5.065305503847e+04
-5.010185392712e+04
-5.248180121323e+04
-6.965243218912e+04
-6.739951486982e+04
-2.525151831409e+04
-1.150289776177e+04
-2.525151831409e+04
-3.994376855880e+04
-5.823463371530e+04
-4.441684929129e+04
-5.823463371530e+04
-7.299604783170e+04
-3.757347147017e+04
-5.482446604672e+04
-5.065305503847e+04
-3.327503049510e+04
-5.248180121323e+04
-6.965243218912e+04
-6.739951486982e+04
-5.010185392712e+04
-6.970516353463e+04
-6.648584635025e+04
-6.293147849281e+04
-6.648584635025e+04
-6.630881654654e+04
-6.342452840943e+04
-6.020518959926e+04
-6.342452840943e+04
-6.648584635025e+04
-6.970516353463e+04
-6.648584635025e+04
-6.293147849281e+04
-6.342452840943e+04
-6.630881654654e+04
-6.342452840943e+04
-6.020518959926e+04
-5.482446604672e+04
-3.757347147017e+04
-3.327503049510e+04
-5.065305503847e+04
-6.965243218912e+04
-5.248180121323e+04
-5.010185392712e+04
-6.739951486982e+04
-3.327503049510e+04
-5.065305503847e+04
-5.482446604672e+04
-3.757347147017e+04
-5.010185392712e+04
-6.739951486982e+04
-6.965243218912e+04
-5.248180121323e+04
-6.648584635025e+04
-6.293147849281e+04
-6.648584635025e+04
-6.970516353464e+04
-6.342452840943e+04
-6.020518959926e+04
-6.342452840943e+04
-6.630881654654e+04
-6.293147849281e+04
-6.648584635025e+04
-6.970516353463e+04
-6.648584635025e+04
-6.020518959926e+04
-6.342452840943e+04
-6.630881654654e+04
-6.342452840943e+04
-5.065305503847e+04
-3.327503049510e+04
-3.757347147017e+04
-5.482446604672e+04
-6.739951486982e+04
-5.010185392712e+04
-5.248180121323e+04
-6.965243218912e+04
-2.525151831409e+04
-3.994376855880e+04
-2.525151831409e+04
-1.150289776177e+04
-5.823463371530e+04
-7.299604783170e+04
-5.823463371530e+04
-4.441684929129e+04
-5.482446604672e+04
-5.065305503847e+04
-3.327503049510e+04
-3.757347147017e+04
-6.965243218912e+04
-6.739951486982e+04
-5.010185392712e+04
-5.248180121323e+04
-5.065305503847e+04
-5.482446604672e+04
-3.757347147017e+04
-3.327503049510e+04
-6.739951486982e+04
-6.965243218912e+04
-5.248180121323e+04
-5.010185392712e+04
-3.994376855880e+04
-2.525151831409e+04
-1.150289776177e+04
-2.525151831409e+04
-7.299604783170e+04
-5.823463371530e+04
-4.441684929129e+04
-5.823463371530e+04
-1.094095197317e+04
-1.525853772222e+04
-1.972188623560e+04
-1.525853772222e+04
-3.250570422289e+04
-3.935839593846e+04
-4.635685041836e+04
-3.935839593846e+04
-9.505705220151e+03
-1.323905785975e+04
-2.006518258990e+04
-1.637827059302e+04
-3.611585410134e+04
-3.986700459306e+04
-4.684935458414e+04
-4.314464473514e+04
-1.323905785975e+04
-9.505705220151e+03
-1.637827059302e+04
-2.006518258989e+04
-3.986700459306e+04
-3.611585410134e+04
-4.314464473514e+04
-4.684935458414e+04
-1.525853772222e+04
-1.094095197317e+04
-1.525853772222e+04
-1.972188623560e+04
-3.935839593846e+04
-3.250570422289e+04
-3.935839593846e+04
-4.635685041836e+04
-9.505705220151e+03
-1.637827059302e+04
-2.006518258990e+04
-1.323905785975e+04
-3.611585410134e+04
-4.314464473514e+04
-4.684935458414e+04
-3.986700459306e+04
-1.303465495044e+04
-1.609019612950e+04
-1.945860722667e+04
-1.609019612950e+04
-3.993243905191e+04
-4.368693318855e+04
-4.775429724328e+04
-4.368693318855e+04
-1.609019612950e+04
-1.303465495044e+04
-1.609019612950e+04
-1.945860722667e+04
-4.368693318855e+04
-3.993243905191e+04
-4.368693318855e+04
-4.775429724328e+04
-1.637827059302e+04
-9.505705220150e+03
-1.323905785975e+04
-2.006518258989e+04
-4.314464473514e+04
-3.611585410134e+04
-3.986700459307e+04
-4.684935458414e+04
-1.323905785975e+04
-2.006518258990e+04
-1.637827059302e+04
-9.505705220151e+03
-3.986700459306e+04
-4.684935458414e+04
-4.314464473514e+04
-3.611585410134e+04
-1.609019612950e+04
-1.945860722667e+04
-1.609019612950e+04
-1.303465495044e+04
-4.368693318855e+04
-4.775429724328e+04
-4.368693318855e+04
-3.993243905191e+04
-1.945860722667e+04
-1.609019612950e+04
-1.303465495044e+04
-1.609019612950e+04
-4.775429724328e+04
-4.368693318855e+04
-3.993243905191e+04
-4.368693318855e+04
-2.006518258989e+04
-1.323905785975e+04
-9.505705220150e+03
-1.637827059302e+04
-4.684935458414e+04
-3.986700459307e+04
-3.611585410134e+04
-4.314464473514e+04
-1.525853772222e+04
-1.972188623560e+04
-1.525853772222e+04
-1.094095197317e+04
-3.935839593846e+04
-4.635685041836e+04
-3.935839593846e+04
-3.250570422289e+04
-1.637827059302e+04
-2.006518258990e+04
-1.323905785975e+04
-9.505705220151e+03
-4.314464473514e+04
-4.684935458414e+04
-3.986700459306e+04
-3.611585410134e+04
-2.006518258990e+04
-1.637827059302e+04
-9.505705220151e+03
-1.323905785975e+04
-4.684935458414e+04
-4.314464473514e+04
-3.611585410134e+04
-3.986700459306e+04
-1.972188623560e+04
-1.525853772222e+04
-1.094095197317e+04
-1.525853772222e+04
-4.635685041836e+04
-3.935839593846e+04
-3.250570422289e+04
-3.935839593846e+04
3.545430661431e+03
2.567561041381e+03
1.905627508176e+03
2.567561041381e+03
-1.444186860367e+04
-1.558321606768e+04
-1.640862744484e+04
-1.558321606768e+04
5.810102878505e+03
4.515458509234e+03
3.696856875153e+03
5.117833191400e+03
-1.481920934921e+04
-1.637105231837e+04
-1.734478842183e+04
-1.566661350569e+04
4.515458509234e+03
5.810102878505e+03
5.117833191401e+03
3.696856875153e+03
-1.637105231837e+04
-1.481920934921e+04
-1.566661350569e+04
-1.734478842183e+04
2.567561041382e+03
3.545430661430e+03
2.567561041381e+03
1.905627508177e+03
-1.558321606768e+04
-1.444186860367e+04
-1.558321606768e+04
-1.640862744484e+04
5.810102878505e+03
5.117833191400e+03
3.696856875154e+03
4.515458509234e+03
-1.481920934921e+04
-1.566661350569e+04
-1.734478842183e+04
-1.637105231837e+04
8.330038874625e+03
6.859278270747e+03
5.403985571420e+03
6.859278270748e+03
-1.492459956653e+04
-1.662648853882e+04
-1.831290960656e+04
-1.662648853882e+04
6.859278270748e+03
8.330038874625e+03
6.859278270748e+03
5.403985571420e+03
-1.662648853882e+04
-1.492459956653e+04
-1.662648853882e+04
-1.831290960656e+04
5.117833191401e+03
5.810102878504e+03
4.515458509233e+03
3.696856875153e+03
-1.566661350569e+04
-1.481920934921e+04
-1.637105231837e+04
-1.734478842183e+04
4.515458509234e+03
3.696856875154e+03
5.117833191400e+03
5.810102878505e+03
-1.637105231837e+04
-1.734478842183e+04
-1.566661350569e+04
-1.481920934921e+04
6.859278270748e+03
5.403985571420e+03
6.859278270748e+03
8.330038874625e+03
-1.662648853882e+04
-1.831290960656e+04
-1.662648853882e+04
-1.492459956653e+04
5.403985571420e+03
6.859278270747e+03
8.330038874625e+03
6.859278270748e+03
-1.831290960656e+04
-1.662648853882e+04
-1.492459956653e+04
-1.662648853882e+04
3.696856875153e+03
4.515458509234e+03
5.810102878505e+03
5.117833191401e+03
-1.734478842183e+04
-1.637105231837e+04
-1.481920934921e+04
-1.566661350569e+04
2.567561041382e+03
1.905627508176e+03
2.567561041381e+03
3.545430661430e+03
-1.558321606768e+04
-1.640862744484e+04
-1.558321606768e+04
-1.444186860367e+04
5.117833191400e+03
3.696856875154e+03
4.515458509233e+03
5.810102878505e+03
-1.566661350569e+04
-1.734478842183e+04
-1.637105231837e+04
-1.481920934921e+04
3.696856875153e+03
5.117833191401e+03
5.810102878505e+03
4.515458509234e+03
-1.734478842183e+04
-1.566661350569e+04
-1.481920934921e+04
-1.637105231837e+04
1.905627508176e+03
2.567561041381e+03
3.545430661430e+03
2.567561041382e+03
-1.640862744484e+04
-1.558321606768e+04
-1.444186860367e+04
-1.558321606768e+04
SCALARS STRESS_II double 1
LOOKUP_TABLE default
7.143976746891e+09
6.369883228073e+09
5.631710568478e+09
6.369883228073e+09
3.680584854861e+08
-2.244718766303e+06
-2.731745745359e+08
-2.244718766295e+06
6.369883228073e+09
6.478552623656e+09
5.745259874405e+09
5.631710568478e+09
6.047330701905e+08
5.363307623253e+08
2.968939038761e+08
3.467185281410e+08
6.478552623656e+09
6.369883228073e+09
5.631710568478e+09
5.745259874405e+09
5.363307623253e+08
6.047330701905e+08
3.467185281410e+08
2.968939038761e+08
6.369883228073e+09
7.143976746891e+09
6.369883228073e+09
5.631710568478e+09
-2.244718766299e+06
3.680584854861e+08
-2.244718766303e+06
-2.731745745359e+08
6.369883228073e+09
5.631710568478e+09
5.745259874405e+09
6.478552623656e+09
6.047330701905e+08
3.467185281410e+08
2.968939038761e+08
5.363307623253e+08
5.631710568478e+09
5.745259874405e+09
5.865975019482e+09
5.745259874405e+09
1.121165245329e+09
1.117299626196e+09
1.118414772586e+09
1.117299626196e+09
5.745259874405e+09
5.631710568478e+09
5.745259874405e+09
5.865975019482e+09
1.117299626196e+09
1.121165245329e+09
1.117299626196e+09
1.118414772586e+09
5.631710568478e+09
6.369883228073e+09
6.478552623656e+09
5.745259874405e+09
3.467185281410e+08
6.047330701905e+08
5.363307623253e+08
2.968939038761e+08
6.478552623656e+09
5.745259874405e+09
5.631710568478e+09
6.369883228073e+09
5.363307623253e+08
2.968939038761e+08
3.467185281410e+08
6.047330701905e+08
5.745259874405e+09
5.865975019482e+09
5.745259874405e+09
5.631710568478e+09
1.117299626196e+09
1.118414772586e+09
1.117299626196e+09
1.121165245329e+09
5.865975019482e+09
5.745259874405e+09
5.631710568478e+09
5.745259874405e+09
1.118414772586e+09
1.117299626196e+09
1.121165245329e+09
1.117299626196e+09
5.745259874405e+09
6.478552623656e+09
6.369883228073e+09
5.631710568478e+09
2.968939038761e+08
5.363307623253e+08
6.047330701905e+08
3.467185281410e+08
6.369883228073e+09
5.631710568478e+09
6.369883228073e+09
7.143976746891e+09
-2.244718766306e+06
-2.731745745359e+08
-2.244718766299e+06
3.680584854861e+08
5.631710568478e+09
5.745259874405e+09
6.478552623656e+09
6.369883228073e+09
3.467185281410e+08
2.968939038761e+08
5.363307623253e+08
6.047330701905e+08
5.745259874405e+09
5.631710568478e+09
6.369883228073e+09
6.478552623656e+09
2.968939038761e+08
3.467185281410e+08
6.047330701905e+08
5.363307623253e+08
5.631710568478e+09
6.369883228073e+09
7.143976746891e+09
6.369883228073e+09
-2.731745745359e+08
-2.244718766303e+06
3.680584854861e+08
-2.244718766295e+06
-5.711279434295e+08
-5.534576868321e+08
-4.144723228441e+08
-5.534576868321e+08
2.004267513546e+08
5.291206748190e+08
1.000671292988e+09
5.291206748190e+08
-2.406744802707e+08
-3.371216988624e+08
-8.047331805917e+06
1.311419210533e+08
2.934249981262e+08
2.285068185421e+08
7.421923180352e+08
8.268016819742e+08
-3.371216988624e+08
-2.406744802707e+08
1.311419210533e+08
-8.047331805920e+06
2.285068185421e+08
2.934249981262e+08
8.268016819742e+08
7.421923180352e+08
-5.534576868321e+08
-5.711279434295e+08
-5.534576868321e+08
-4.144723228441e+08
5.291206748190e+08
2.004267513546e+08
5.291206748190e+08
1.000671292988e+09
-2.406744802707e+08
1.311419210533e+08
-8.047331805922e+06
-3.371216988624e+08
2.934249981262e+08
8.268016819742e+08
7.421923180352e+08
2.285068185421e+08
8.313097794623e+08
6.988344011684e+08
5.622592867756e+08
6.988344011684e+08
6.607154772325e+08
5.512612644049e+08
4.369708751459e+08
5.512612644049e+08
6.988344011684e+08
8.313097794623e+08
6.988344011684e+08
5.622592867756e+08
5.512612644049e+08
6.607154772325e+08
5.512612644049e+08
4.369708751459e+08
1.311419210533e+08
-2.406744802707e+08
-3.371216988624e+08
-8.047331805924e+06
8.268016819742e+08
2.934249981262e+08
2.285068185421e+08
7.421923180353e+08
-3.371216988624e+08
-8.047331805921e+06
1.311419210533e+08
-2.406744802707e+08
2.285068185421e+08
7.421923180352e+08
8.268016819742e+08
2.934249981262e+08
6.988344011684e+08
5.622592867756e+08
6.988344011684e+08
8.313097794623e+08
5.512612644049e+08
4.369708751459e+08
5.512612644049e+08
6.607154772325e+08
5.622592867756e+08
6.988344011684e+08
8.313097794623e+08
6.988344011684e+08
4.369708751459e+08
5.512612644049e+08
6.607154772325e+08
5.512612644049e+08
-8.047331805922e+06
-3.371216988624e+08
-2.406744802707e+08
1.311419210533e+08
7.421923180353e+08
2.285068185421e+08
2.934249981262e+08
8.268016819742e+08
-5.534576868321e+08
-4.144723228441e+08
-5.534576868321e+08
-5.711279434295e+08
5.291206748190e+08
1.000671292988e+09
5.291206748190e+08
2.004267513546e+08
1.311419210533e+08
-8.047331805922e+06
-3.371216988624e+08
-2.406744802707e+08
8.268016819742e+08
7.421923180352e+08
2.285068185421e+08
2.934249981262e+08
-8.047331805922e+06
1.311419210533e+08
-2.406744802707e+08
-3.371216988624e+08
7.421923180352e+08
8.268016819742e+08
2.934249981262e+08
2.285068185421e+08
-4.144723228441e+08
-5.534576868321e+08
-5.711279434295e+08
-5.534576868321e+08
1.000671292988e+09
5.291206748190e+08
2.004267513547e+08
5.291206748190e+08
-2.102384335933e+08
-2.152942609037e+08
-2.073056985827e+08
-2.152942609037e+08
1.668994962687e+08
2.974525608707e+08
4.620087401696e+08
2.974525608707e+08
-2.840044785292e+08
-2.775060338350e+08
-2.409894478373e+08
-2.627906774608e+08
2.046242807385e+08
2.789901762355e+08
4.435851093316e+08
3.542650005474e+08
-2.775060338350e+08
-2.840044785292e+08
-2.627906774608e+08
-2.409894478373e+08
2.789901762355e+08
2.046242807385e+08
3.542650005474e+08
4.435851093316e+08
-2.152942609037e+08
-2.102384335933e+08
-2.152942609037e+08
-2.073056985827e+08
2.974525608707e+08
1.668994962687e+08
2.974525608707e+08
4.620087401696e+08
-2.840044785292e+08
-2.627906774608e+08
-2.409894478373e+08
-2.775060338350e+08
2.046242807385e+08
3.542650005474e+08
4.435851093316e+08
2.789901762355e+08
-3.104922500663e+08
-3.070024061763e+08
-2.954043634106e+08
-3.070024061763e+08
2.537246935526e+08
3.358889733220e+08
4.350218312555e+08
3.358889733220e+08
-3.070024061763e+08
-3.104922500663e+08
-3.070024061763e+08
-2.954043634106e+08
3.358889733220e+08
2.537246935526e+08
3.358889733220e+08
4.350218312556e+08
-2.627906774608e+08
-2.840044785292e+08
-2.775060338350e+08
-2.409894478373e+08
3.542650005474e+08
2.046242807385e+08
2.789901762355e+08
4.435851093316e+08
-2.775060338350e+08
-2.409894478373e+08
-2.627906774608e+08
-2.840044785292e+08
2.789901762355e+08
4.435851093316e+08
3.542650005474e+08
2.046242807385e+08
-3.070024061763e+08
-2.954043634106e+08
-3.070024061763e+08
-3.104922500663e+08
3.358889733220e+08
4.350218312555e+08
3.358889733220e+08
2.537246935526e+08
-2.954043634106e+08
-3.070024061763e+08
-3.104922500663e+08
-3.070024061763e+08
4.350218312555e+08
3.358889733220e+08
2.537246935526e+08
3.358889733220e+08
-2.409894478373e+08
-2.775060338350e+08
-2.840044785292e+08
-2.627906774608e+08
4.435851093316e+08
2.789901762355e+08
2.046242807385e+08
3.542650005474e+08
-2.152942609037e+08
-2.073056985827e+08
-2.152942609037e+08
-2.102384335933e+08
2.974525608707e+08
4.620087401696e+08
2.974525608707e+08
1.668994962687e+08
-2.627906774608e+08
-2.409894478373e+08
-2.775060338350e+08
-2.840044785292e+08
3.542650005474e+08
4.435851093316e+08
2.789901762355e+08
2.046242807385e+08
-2.409894478373e+08
-2.627906774608e+08
-2.840044785292e+08
-2.775060338350e+08
4.435851093316e+08
3.542650005474e+08
2.046242807385e+08
2.789901762355e+08
-2.073056985827e+08
-2.152942609037e+08
-2.102384335933e+08
-2.152942609037e+08
4.620087401696e+08
2.974525608707e+08
1.668994962687e+08
2.974525608707e+08
-4.722545538098e+07
-5.110462209521e+07
-5.355037403071e+07
-5.110462209521e+07
3.862194637321e+07
4.840544777653e+07
5.608173797993e+07
4.840544777653e+07
-4.807013774927e+07
-5.574320000331e+07
-5.974185752041e+07
-5.205920204055e+07
3.906502621504e+07
5.251849064215e+07
6.205538768407e+07
4.660871774753e+07
-5.574320000331e+07
-4.807013774927e+07
-5.205920204055e+07
-5.974185752041e+07
5.251849064215e+07
3.906502621504e+07
4.660871774753e+07
6.205538768407e+07
-5.110462209521e+07
-4.722545538099e+07
-5.110462209521e+07
-5.355037403071e+07
4.840544777653e+07
3.862194637321e+07
4.840544777653e+07
5.608173797993e+07
-4.807013774927e+07
-5.205920204055e+07
-5.974185752041e+07
-5.574320000331e+07
3.906502621504e+07
4.660871774753e+07
6.205538768407e+07
5.251849064215e+07
-4.336459742299e+07
-5.457520069748e+07
-6.426762306983e+07
-5.457520069748e+07
3.751988408748e+07
5.230568124719e+07
6.884816967247e+07
5.230568124719e+07
-5.457520069748e+07
-4.336459742298e+07
-5.457520069748e+07
-6.426762306983e+07
5.230568124719e+07
3.751988408747e+07
5.230568124719e+07
6.884816967247e+07
-5.205920204055e+07
-4.807013774927e+07
-5.574320000331e+07
-5.974185752041e+07
4.660871774752e+07
3.906502621505e+07
5.251849064215e+07
6.205538768407e+07
-5.574320000331e+07
-5.974185752041e+07
-5.205920204055e+07
-4.807013774927e+07