# vtk DataFile Version 3.0
STAPpp FEM Output
ASCII
DATASET UNSTRUCTURED_GRID

POINTS 64 double
0.000000000000e+00 0.000000000000e+00 0.000000000000e+00
5.000000000000e-01 0.000000000000e+00 0.000000000000e+00
5.000000000000e-01 5.000000000000e-01 0.000000000000e+00
0.000000000000e+00 5.000000000000e-01 0.000000000000e+00
-3.459671210071e-06 -3.459671210071e-06 4.999866429141e-01
5.000000000000e-01 -3.506495031501e-06 4.999867940097e-01
5.000000000000e-01 5.000000000000e-01 4.999869947240e-01
-3.506495031501e-06 5.000000000000e-01 4.999867940097e-01
5.000000000000e-01 0.000000000000e+00 0.000000000000e+00
1.000000000000e+00 0.000000000000e+00 0.000000000000e+00
1.000000000000e+00 5.000000000000e-01 0.000000000000e+00
5.000000000000e-01 5.000000000000e-01 0.000000000000e+00
5.000000000000e-01 -3.506495031501e-06 4.999867940097e-01
1.000003459671e+00 -3.459671210071e-06 4.999866429141e-01
1.000003506495e+00 5.000000000000e-01 4.999867940097e-01
5.000000000000e-01 5.000000000000e-01 4.999869947240e-01
0.000000000000e+00 5.000000000000e-01 0.000000000000e+00
5.000000000000e-01 5.000000000000e-01 0.000000000000e+00
5.000000000000e-01 1.000000000000e+00 0.000000000000e+00
0.000000000000e+00 1.000000000000e+00 0.000000000000e+00
-3.506495031501e-06 5.000000000000e-01 4.999867940097e-01
5.000000000000e-01 5.000000000000e-01 4.999869947240e-01
5.000000000000e-01 1.000003506495e+00 4.999867940097e-01
-3.459671210071e-06 1.000003459671e+00 4.999866429141e-01
5.000000000000e-01 5.000000000000e-01 0.000000000000e+00
1.000000000000e+00 5.000000000000e-01 0.000000000000e+00
1.000000000000e+00 1.000000000000e+00 0.000000000000e+00
5.000000000000e-01 1.000000000000e+00 0.000000000000e+00
5.000000000000e-01 5.000000000000e-01 4.999869947240e-01
1.000003506495e+00 5.000000000000e-01 4.999867940097e-01
1.000003459671e+00 1.000003459671e+00 4.999866429141e-01
5.000000000000e-01 1.000003506495e+00 4.999867940097e-01
-3.459671210071e-06 -3.459671210071e-06 4.999866429141e-01
5.000000000000e-01 -3.506495031501e-06 4.999867940097e-01
5.000000000000e-01 5.000000000000e-01 4.999869947240e-01
-3.506495031501e-06 5.000000000000e-01 4.999867940097e-01
-1.169720313270e-06 -1.169720313270e-06 9.999817641438e-01
5.000000000000e-01 -1.366254904488e-06 9.999808509745e-01
5.000000000000e-01 5.000000000000e-01 9.999800137577e-01
-1.366254904488e-06 5.000000000000e-01 9.999808509745e-01
5.000000000000e-01 -3.506495031501e-06 4.999867940097e-01
1.000003459671e+00 -3.459671210071e-06 4.999866429141e-01
1.000003506495e+00 5.000000000000e-01 4.999867940097e-01
5.000000000000e-01 5.000000000000e-01 4.999869947240e-01
5.000000000000e-01 -1.366254904488e-06 9.999808509745e-01
1.000001169720e+00 -1.169720313270e-06 9.999817641438e-01
1.000001366255e+00 5.000000000000e-01 9.999808509745e-01
5.000000000000e-01 5.000000000000e-01 9.999800137577e-01
-3.506495031501e-06 5.000000000000e-01 4.999867940097e-01
5.000000000000e-01 5.000000000000e-01 4.999869947240e-01
5.000000000000e-01 1.000003506495e+00 4.999867940097e-01
-3.459671210071e-06 1.000003459671e+00 4.999866429141e-01
-1.366254904488e-06 5.000000000000e-01 9.999808509745e-01
5.000000000000e-01 5.000000000000e-01 9.999800137577e-01
5.000000000000e-01 1.000001366255e+00 9.999808509745e-01
-1.169720313270e-06 1.000001169720e+00 9.999817641438e-01
5.000000000000e-01 5.000000000000e-01 4.999869947240e-01
1.000003506495e+00 5.000000000000e-01 4.999867940097e-01
1.000003459671e+00 1.000003459671e+00 4.999866429141e-01
5.000000000000e-01 1.000003506495e+00 4.999867940097e-01
5.000000000000e-01 5.000000000000e-01 9.999800137577e-01
1.000001366255e+00 5.000000000000e-01 9.999808509745e-01
1.000001169720e+00 1.000001169720e+00 9.999817641438e-01
5.000000000000e-01 1.000001366255e+00 9.999808509745e-01

CELLS 8 72
8 0 1 2 3 4 5 6 7
8 8 9 10 11 12 13 14 15
8 16 17 18 19 20 21 22 23
8 24 25 26 27 28 29 30 31
8 32 33 34 35 36 37 38 39
8 40 41 42 43 44 45 46 47
8 48 49 50 51 52 53 54 55
8 56 57 58 59 60 61 62 63

CELL_TYPES 8
12
12
12
12
12
12
12
12

POINT_DATA 64
SCALARS STRESS_I double 1
LOOKUP_TABLE default
-1.240212245268e+05
-1.226182944336e+05
-1.207546517200e+05
-1.226182944336e+05
-5.977477680029e+04
-5.793708513398e+04
-5.563868084713e+04
-5.793708513398e+04
-1.226182944336e+05
-1.240212245268e+05
-1.226182944336e+05
-1.207546517200e+05
-5.793708513398e+04
-5.977477680029e+04
-5.793708513398e+04
-5.563868084713e+04
-1.226182944336e+05
-1.207546517200e+05
-1.226182944336e+05
-1.240212245268e+05
-5.793708513398e+04
-5.563868084713e+04
-5.793708513398e+04
-5.977477680029e+04
-1.207546517200e+05
-1.226182944336e+05
-1.240212245268e+05
-1.226182944336e+05
-5.563868084713e+04
-5.793708513398e+04
-5.977477680029e+04
-5.793708513398e+04
1.894681663486e+04
9.499823863646e+03
2.973425194516e+02
9.499823863646e+03
-2.357780540416e+04
-3.163472603250e+04
-3.944713523381e+04
-3.163472603250e+04
9.499823863646e+03
1.894681663486e+04
9.499823863646e+03
2.973425194516e+02
-3.163472603250e+04
-2.357780540416e+04
-3.163472603250e+04
-3.944713523381e+04
9.499823863646e+03
2.973425194516e+02
9.499823863646e+03
1.894681663486e+04
-3.163472603250e+04
-3.944713523381e+04
-3.163472603250e+04
-2.357780540416e+04
2.973425194516e+02
9.499823863646e+03
1.894681663486e+04
9.499823863646e+03
-3.944713523381e+04
-3.163472603250e+04
-2.357780540416e+04
-3.163472603250e+04
SCALARS STRESS_II double 1
LOOKUP_TABLE default
4.592835850285e+09
4.512174337028e+09
4.400390423150e+09
4.512174337028e+09
3.768932510445e+08
3.387638113494e+08
2.899554693369e+08
3.387638113494e+08
4.512174337028e+09
4.592835850285e+09
4.512174337028e+09
4.400390423150e+09
3.387638113494e+08
3.768932510445e+08
3.387638113494e+08
2.899554693369e+08
4.512174337028e+09
4.400390423150e+09
4.512174337028e+09
4.592835850285e+09
3.387638113494e+08
2.899554693369e+08
3.387638113494e+08
3.768932510445e+08
4.400390423150e+09
4.512174337028e+09
4.592835850285e+09
4.512174337028e+09
2.899554693369e+08
3.387638113494e+08
3.768932510445e+08
3.387638113494e+08
-9.384423989723e+07
-2.228943453751e+08
-2.993761199715e+08
-2.228943453751e+08
7.771856527063e+07
1.867883094328e+08
3.262638699689e+08
1.867883094328e+08
-2.228943453751e+08
-9.384423989722e+07
-2.228943453751e+08
-2.993761199715e+08
1.867883094328e+08
7.771856527063e+07
1.867883094328e+08
3.262638699689e+08
-2.228943453751e+08
-2.993761199715e+08
-2.228943453751e+08
-9.384423989722e+07
1.867883094328e+08
3.262638699689e+08
1.867883094328e+08
7.771856527063e+07
-2.993761199715e+08
-2.228943453751e+08
-9.384423989722e+07
-2.228943453751e+08
3.262638699689e+08
1.867883094328e+08
7.771856527063e+07
1.867883094328e+08
SCALARS STRESS_III double 1
LOOKUP_TABLE default
-5.330338545948e+13
-5.215604243608e+13
-5.049194512473e+13
-5.215604243608e+13
-6.246977761222e+11
-5.188864706651e+11
-3.976390032992e+11
-5.188864706651e+11
-5.215604243608e+13
-5.330338545948e+13
-5.215604243608e+13
-5.049194512473e+13
-5.188864706651e+11
-6.246977761222e+11
-5.188864706651e+11
-3.976390032992e+11
-5.215604243608e+13
-5.049194512473e+13
-5.215604243608e+13
-5.330338545948e+13
-5.188864706651e+11
-3.976390032992e+11
-5.188864706651e+11
-6.246977761222e+11
-5.049194512473e+13
-5.215604243608e+13
-5.330338545948e+13
-5.215604243608e+13
-3.976390032992e+11
-5.188864706651e+11
-6.246977761222e+11
-5.188864706651e+11
-2.294011497502e+12
-2.315976512615e+12
-2.023732992011e+12
-2.315976512615e+12
-6.739385157204e+10
-3.037132141135e+11
-7.705299352521e+11
-3.037132141135e+11
-2.315976512615e+12
-2.294011497502e+12
-2.315976512615e+12
-2.023732992011e+12
-3.037132141135e+11
-6.739385157204e+10
-3.037132141135e+11
-7.705299352521e+11
-2.315976512615e+12
-2.023732992011e+12
-2.315976512615e+12
-2.294011497502e+12
-3.037132141135e+11
-7.705299352521e+11
-3.037132141135e+11
-6.739385157203e+10
-2.023732992011e+12
-2.315976512615e+12
-2.294011497502e+12
-2.315976512615e+12
-7.705299352521e+11
-3.037132141135e+11
-6.739385157203e+10
-3.037132141135e+11
SCALARS STRESS_VONMISES double 1
LOOKUP_TABLE default
1.038673590828e+05
1.025820247060e+05
1.009024057635e+05
1.025820247060e+05
5.653433196280e+04
5.493579909743e+04
5.296892803401e+04
5.493579909743e+04
1.025820247060e+05
1.038673590828e+05
1.025820247060e+05
1.009024057635e+05
5.493579909743e+04
5.653433196280e+04
5.493579909743e+04
5.296892803401e+04
1.025820247060e+05
1.009024057635e+05
1.025820247060e+05
1.038673590828e+05
5.493579909743e+04
5.296892803401e+04
5.493579909743e+04
5.653433196280e+04
1.009024057635e+05
1.025820247060e+05
1.038673590828e+05
1.025820247060e+05
5.296892803401e+04
5.493579909743e+04
5.653433196280e+04
5.493579909743e+04
2.127971100585e+04
1.769579042641e+04
1.730504355803e+04
1.769579042641e+04
2.186765516478e+04
2.853011709962e+04
3.506868415247e+04
2.853011709962e+04
1.769579042641e+04
2.127971100585e+04
1.769579042641e+04
1.730504355803e+04
2.853011709962e+04
2.186765516478e+04
2.853011709962e+04
3.506868415247e+04
1.769579042641e+04
1.730504355803e+04
1.769579042641e+04
2.127971100585e+04
2.853011709962e+04
3.506868415247e+04
2.853011709962e+04
2.186765516478e+04
1.730504355803e+04
1.769579042641e+04
2.127971100585e+04
1.769579042641e+04
3.506868415247e+04
2.853011709962e+04
2.186765516478e+04
2.853011709962e+04
SCALARS STRESS_XX double 1
LOOKUP_TABLE default
-2.862028258310e+04
-2.829652948468e+04
-2.786645808922e+04
-2.829652948468e+04
-3.910110380608e+03
-3.486027688384e+03
-2.821853907366e+03
-3.352254896639e+03
-2.829652948468e+04
-2.862028258310e+04
-2.829652948468e+04
-2.786645808922e+04
-3.486027688384e+03
-3.910110380608e+03
-3.352254896639e+03
-2.821853907366e+03
-2.829652948468e+04
-2.786645808922e+04
-2.829652948468e+04
-2.862028258310e+04
-3.352254896639e+03
-2.821853907366e+03
-3.486027688384e+03
-3.910110380608e+03
-2.786645808922e+04
-2.829652948468e+04
-2.862028258310e+04
-2.829652948468e+04
-2.821853907366e+03
-3.352254896639e+03
-3.910110380608e+03
-3.486027688384e+03
1.425641118135e+04
1.207633592645e+04
1.008645917723e+04
1.221010871820e+04
-2.099212679813e+03
-3.958502055582e+03
-5.199878420178e+03
-3.397014758336e+03
1.207633592645e+04
1.425641118135e+04
1.221010871820e+04
1.008645917723e+04
-3.958502055582e+03
-2.099212679813e+03
-3.397014758336e+03
-5.199878420178e+03
1.221010871820e+04
1.008645917723e+04
1.207633592645e+04
1.425641118135e+04
-3.397014758336e+03
-5.199878420178e+03
-3.958502055582e+03
-2.099212679813e+03
1.008645917723e+04
1.221010871820e+04
1.425641118135e+04
1.207633592645e+04
-5.199878420178e+03
-3.397014758336e+03
-2.099212679812e+03
-3.958502055582e+03
SCALARS STRESS_YY double 1
LOOKUP_TABLE default
-2.862028258310e+04
-2.829652948468e+04
-2.786645808922e+04
-2.829652948468e+04
-3.910110380608e+03
-3.352254896639e+03
-2.821853907366e+03
-3.486027688384e+03
-2.829652948468e+04
-2.862028258310e+04
-2.829652948468e+04
-2.786645808922e+04
-3.352254896639e+03
-3.910110380608e+03
-3.486027688384e+03
-2.821853907366e+03
-2.829652948468e+04
-2.786645808922e+04
-2.829652948468e+04
-2.862028258310e+04
-3.486027688384e+03
-2.821853907366e+03
-3.352254896639e+03
-3.910110380608e+03
-2.786645808922e+04
-2.829652948468e+04
-2.862028258310e+04
-2.829652948468e+04
-2.821853907366e+03
-3.486027688384e+03
-3.910110380608e+03
-3.352254896639e+03
1.425641118135e+04
1.221010871820e+04
1.008645917723e+04
1.207633592645e+04
-2.099212679813e+03
-3.397014758336e+03
-5.199878420178e+03
-3.958502055582e+03
1.221010871820e+04
1.425641118135e+04
1.207633592645e+04
1.008645917723e+04
-3.397014758336e+03
-2.099212679813e+03
-3.958502055582e+03
-5.199878420178e+03
1.207633592645e+04
1.008645917723e+04
1.221010871820e+04
1.425641118135e+04
-3.958502055582e+03
-5.199878420178e+03
-3.397014758336e+03
-2.099212679812e+03
1.008645917723e+04
1.207633592645e+04
1.425641118135e+04
1.221010871820e+04
-5.199878420178e+03
-3.958502055582e+03
-2.099212679812e+03
-3.397014758336e+03
SCALARS STRESS_ZZ double 1
LOOKUP_TABLE default
-6.678065936057e+04
-6.602523546426e+04
-6.502173554151e+04
-6.602523546426e+04
-5.195455603907e+04
-5.109880254896e+04
-4.999497303240e+04
-5.109880254896e+04
-6.602523546426e+04
-6.678065936057e+04
-6.602523546426e+04
-6.502173554151e+04
-5.109880254896e+04
-5.195455603907e+04
-5.109880254896e+04
-4.999497303240e+04
-6.602523546426e+04
-6.502173554151e+04
-6.602523546426e+04
-6.678065936057e+04
-5.109880254896e+04
-4.999497303240e+04
-5.109880254896e+04
-5.195455603907e+04
-6.502173554151e+04
-6.602523546426e+04
-6.678065936057e+04
-6.602523546426e+04
-4.999497303240e+04
-5.109880254896e+04
-5.195455603907e+04
-5.109880254896e+04
-9.566005727837e+03
-1.478662078101e+04
-1.987557583501e+04
-1.478662078101e+04
-1.937938004453e+04
-2.427920921858e+04
-2.904737839345e+04
-2.427920921858e+04
-1.478662078101e+04
-9.566005727837e+03
-1.478662078101e+04
-1.987557583501e+04
-2.427920921858e+04
-1.937938004453e+04
-2.427920921858e+04
-2.904737839345e+04
-1.478662078101e+04
-1.987557583501e+04
-1.478662078101e+04
-9.566005727837e+03
-2.427920921858e+04
-2.904737839345e+04
-2.427920921858e+04
-1.937938004453e+04
-1.987557583501e+04
-1.478662078101e+04
-9.566005727837e+03
-1.478662078101e+04
-2.904737839345e+04
-2.427920921858e+04
-1.937938004453e+04
-2.427920921858e+04
SCALARS STRESS_XY double 1
LOOKUP_TABLE default
7.438494264989e-14
-1.829647544582e-13
-8.881784197001e-14
2.438049762077e-13
-1.337727917447e+02
-6.688639587235e+01
-1.783462266758e-12
-6.688639587235e+01
-3.690381333854e-13
4.485301019486e-13
3.019806626980e-13
-4.440892098501e-14
6.688639587236e+01
1.337727917447e+02
6.688639587235e+01
-7.744915819785e-13
-1.127986593019e-13
3.819167204711e-14
-3.765876499529e-13
4.412026299860e-13
6.688639587236e+01
-1.426414542038e-12
6.688639587235e+01
1.337727917447e+02
6.306066779871e-14
1.829647544582e-13
-3.144151605738e-13
-2.056133041606e-13
-5.346834086595e-13
-6.688639587236e+01
-1.337727917447e+02
-6.688639587235e+01
-1.337727917447e+02
-6.688639587235e+01
-1.669775429036e-12
-6.688639587235e+01
-5.614872972463e+02
-2.807436486231e+02
-2.216893335572e-12
-2.807436486231e+02
6.688639587236e+01
1.337727917447e+02
6.688639587235e+01
-1.215028078150e-12
2.807436486231e+02
5.614872972463e+02
2.807436486231e+02
2.600586412882e-12
6.688639587236e+01
-1.463718035666e-12
6.688639587235e+01
1.337727917447e+02
2.807436486231e+02
-7.815970093361e-13
2.807436486231e+02
5.614872972463e+02
-4.938272013533e-13
-6.688639587236e+01
-1.337727917447e+02
-6.688639587235e+01
3.993250174972e-12
-2.807436486231e+02
-5.614872972462e+02
-2.807436486231e+02
SCALARS STRESS_YZ double 1
LOOKUP_TABLE default
-4.942034440498e+03
-5.008920836371e+03
-7.673861546209e-12
-8.895995051716e-12
-4.726199041555e+03
-4.722206572728e+03
2.867142636429e+02
2.158353989437e+02
-5.008920836371e+03
-4.942034440498e+03
-6.707523425575e-12
-7.361222742475e-12
-4.722206572728e+03
-4.726199041555e+03
2.158353989437e+02
2.867142636429e+02
-1.296029950026e-11
-1.378452907375e-11
5.008920836371e+03
4.942034440498e+03
-2.158353989437e+02
-2.867142636429e+02
4.722206572728e+03
4.726199041555e+03
-1.205080479849e-11
-9.947598300641e-12
4.942034440498e+03
5.008920836371e+03
-2.867142636429e+02
-2.158353989437e+02
4.726199041555e+03
4.722206572728e+03
3.486960171176e+03
3.343981783124e+03
2.867142636429e+02
2.158353989437e+02
1.966690272040e+03
1.861329026607e+03
-1.195938492875e+03
-1.304434500193e+03
3.343981783124e+03
3.486960171176e+03
2.158353989437e+02
2.867142636429e+02
1.861329026607e+03
1.966690272040e+03
-1.304434500193e+03
-1.195938492875e+03
-2.158353989437e+02
-2.867142636429e+02
-3.343981783124e+03
-3.486960171176e+03
1.304434500193e+03
1.195938492875e+03
-1.861329026607e+03
-1.966690272040e+03
-2.867142636429e+02
-2.158353989438e+02
-3.486960171176e+03
-3.343981783124e+03
1.195938492875e+03
1.304434500193e+03
-1.966690272040e+03
-1.861329026607e+03
SCALARS STRESS_ZX double 1
LOOKUP_TABLE default
-4.942034440498e+03
-5.684341886081e-14
-2.842170943040e-12
-5.008920836371e+03
-4.726199041555e+03
2.158353989437e+02
2.867142636429e+02
-4.722206572728e+03
-2.074784788419e-12
4.942034440498e+03
5.008920836371e+03
-7.844391802792e-12
-2.158353989437e+02
4.726199041555e+03
4.722206572728e+03
-2.867142636429e+02
-5.008920836371e+03
-3.382183422218e-12
-5.798028723802e-12
-4.942034440498e+03
-4.722206572728e+03
2.867142636429e+02
2.158353989437e+02
-4.726199041555e+03
-6.650680006715e-12
5.008920836371e+03
4.942034440498e+03
-8.441247700830e-12
-2.867142636429e+02
4.722206572728e+03
4.726199041555e+03
-2.158353989438e+02
3.486960171176e+03
2.158353989437e+02
2.867142636429e+02
3.343981783124e+03
1.966690272040e+03
-1.304434500193e+03
-1.195938492875e+03
1.861329026607e+03
-2.158353989437e+02
-3.486960171176e+03
-3.343981783124e+03
-2.867142636429e+02
1.304434500193e+03
-1.966690272040e+03
-1.861329026607e+03
1.195938492875e+03
3.343981783124e+03
2.867142636429e+02
2.158353989437e+02
3.486960171176e+03
1.861329026607e+03
-1.195938492875e+03
-1.304434500193e+03
1.966690272040e+03
-2.867142636429e+02
-3.343981783124e+03
-3.486960171176e+03
-2.158353989437e+02
1.195938492875e+03
-1.861329026607e+03
-1.966690272040e+03
1.304434500193e+03
