# vtk DataFile Version 3.0
STAPpp FEM Output
ASCII
DATASET UNSTRUCTURED_GRID

POINTS 8 double
0.000000000000e+00 0.000000000000e+00 0.000000000000e+00
1.000000000000e+00 0.000000000000e+00 0.000000000000e+00
1.000000000000e+00 1.000000000000e+00 0.000000000000e+00
0.000000000000e+00 1.000000000000e+00 0.000000000000e+00
-4.095292500000e-06 -4.095292500000e-06 9.999808886350e-01
1.000004095293e+00 -4.095292500000e-06 9.999808886350e-01
1.000004095293e+00 1.000004095293e+00 9.999808886350e-01
-4.095292500000e-06 1.000004095293e+00 9.999808886350e-01

CELLS 1 9
8 0 1 2 3 4 5 6 7

CELL_TYPES 1
12

POINT_DATA 8
SCALARS STRESS_I double 1
LOOKUP_TABLE default
-8.872500000000e+04
-8.872500000000e+04
-8.872500000000e+04
-8.872500000000e+04
-1.267500000000e+04
-1.267500000000e+04
-1.267500000000e+04
-1.267500000000e+04
SCALARS STRESS_II double 1
LOOKUP_TABLE default
2.358500625000e+09
2.358500625000e+09
2.358500625000e+09
2.358500625000e+09
-4.705593750000e+08
-4.705593750000e+08
-4.705593750000e+08
-4.705593750000e+08
SCALARS STRESS_III double 1
LOOKUP_TABLE default
-1.967815139063e+13
-1.967815139063e+13
-1.967815139063e+13
-1.967815139063e+13
-2.477495109375e+12
-2.477495109375e+12
-2.477495109375e+12
-2.477495109375e+12
SCALARS STRESS_VONMISES double 1
LOOKUP_TABLE default
7.425378778217e+04
7.425378778217e+04
7.425378778217e+04
7.425378778217e+04
2.512399251711e+04
2.512399251711e+04
2.512399251711e+04
2.512399251711e+04
SCALARS STRESS_XX double 1
LOOKUP_TABLE default
-2.047500000000e+04
-2.047500000000e+04
-2.047500000000e+04
-2.047500000000e+04
8.775000000000e+03
8.775000000000e+03
8.775000000000e+03
8.775000000000e+03
SCALARS STRESS_YY double 1
LOOKUP_TABLE default
-2.047500000000e+04
-2.047500000000e+04
-2.047500000000e+04
-2.047500000000e+04
8.775000000000e+03
8.775000000000e+03
8.775000000000e+03
8.775000000000e+03
SCALARS STRESS_ZZ double 1
LOOKUP_TABLE default
-4.777500000000e+04
-4.777500000000e+04
-4.777500000000e+04
-4.777500000000e+04
-3.022500000000e+04
-3.022500000000e+04
-3.022500000000e+04
-3.022500000000e+04
SCALARS STRESS_XY double 1
LOOKUP_TABLE default
7.264815340132e-14
9.760871637149e-14
-1.715041090137e-13
9.053991590132e-14
6.154273944114e-12
2.822685300715e-12
-2.019535249384e-12
1.451374447586e-12
SCALARS STRESS_YZ double 1
LOOKUP_TABLE default
-2.925000000000e+03
-2.925000000000e+03
2.925000000000e+03
2.925000000000e+03
-2.925000000000e+03
-2.925000000000e+03
2.925000000000e+03
2.925000000000e+03
SCALARS STRESS_ZX double 1
LOOKUP_TABLE default
-2.925000000000e+03
2.925000000000e+03
2.925000000000e+03
-2.925000000000e+03
-2.925000000000e+03
2.925000000000e+03
2.925000000000e+03
-2.925000000000e+03
