# vtk DataFile Version 3.0
STAPpp FEM Output
ASCII
DATASET UNSTRUCTURED_GRID

POINTS 56 double
4.995692000000e+00 0.000000000000e+00 0.000000000000e+00
4.995692000000e+00 4.995692000000e+00 0.000000000000e+00
-1.258911188186e-17 4.995692000000e+00 0.000000000000e+00
0.000000000000e+00 0.000000000000e+00 0.000000000000e+00
2.997415200000e+00 9.991384000000e-01 1.004308000000e+00
2.997415200000e+00 2.997415200000e+00 2.008616000000e+00
9.991384000000e-01 2.997415200000e+00 1.004308000000e+00
9.991384000000e-01 9.991384000000e-01 1.004308000000e+00
2.997415200000e+00 2.997415200000e+00 2.008616000000e+00
4.995692000000e+00 4.995692000000e+00 0.000000000000e+00
-1.258911188186e-17 4.995692000000e+00 0.000000000000e+00
9.991384000000e-01 2.997415200000e+00 1.004308000000e+00
2.997415200000e+00 2.997415200000e+00 3.012924000000e+00
4.995692000000e+00 4.995692000000e+00 5.021540000000e+00
-1.696793340599e-17 4.995692000000e+00 5.021540000000e+00
9.991384000000e-01 2.997415200000e+00 3.012924000000e+00
2.997415200000e+00 9.991384000000e-01 1.004308000000e+00
2.997415200000e+00 2.997415200000e+00 2.008616000000e+00
9.991384000000e-01 2.997415200000e+00 1.004308000000e+00
9.991384000000e-01 9.991384000000e-01 1.004308000000e+00
2.997415200000e+00 9.991384000000e-01 3.012924000000e+00
2.997415200000e+00 2.997415200000e+00 3.012924000000e+00
9.991384000000e-01 2.997415200000e+00 3.012924000000e+00
9.991384000000e-01 9.991384000000e-01 3.012924000000e+00
4.995692000000e+00 0.000000000000e+00 0.000000000000e+00
2.997415200000e+00 9.991384000000e-01 1.004308000000e+00
9.991384000000e-01 9.991384000000e-01 1.004308000000e+00
0.000000000000e+00 0.000000000000e+00 0.000000000000e+00
4.995692000000e+00 6.568232286189e-18 5.021540000000e+00
2.997415200000e+00 9.991384000000e-01 3.012924000000e+00
9.991384000000e-01 9.991384000000e-01 3.012924000000e+00
-1.247962360934e-17 -1.058215201664e-17 5.021540000000e+00
4.995692000000e+00 0.000000000000e+00 0.000000000000e+00
4.995692000000e+00 4.995692000000e+00 0.000000000000e+00
2.997415200000e+00 2.997415200000e+00 2.008616000000e+00
2.997415200000e+00 9.991384000000e-01 1.004308000000e+00
4.995692000000e+00 6.568232286189e-18 5.021540000000e+00
4.995692000000e+00 4.995692000000e+00 5.021540000000e+00
2.997415200000e+00 2.997415200000e+00 3.012924000000e+00
2.997415200000e+00 9.991384000000e-01 3.012924000000e+00
2.997415200000e+00 9.991384000000e-01 3.012924000000e+00
2.997415200000e+00 2.997415200000e+00 3.012924000000e+00
9.991384000000e-01 2.997415200000e+00 3.012924000000e+00
9.991384000000e-01 9.991384000000e-01 3.012924000000e+00
4.995692000000e+00 6.568232286189e-18 5.021540000000e+00
4.995692000000e+00 4.995692000000e+00 5.021540000000e+00
-1.696793340599e-17 4.995692000000e+00 5.021540000000e+00
-1.247962360934e-17 -1.058215201664e-17 5.021540000000e+00
9.991384000000e-01 9.991384000000e-01 1.004308000000e+00
9.991384000000e-01 2.997415200000e+00 1.004308000000e+00
-1.258911188186e-17 4.995692000000e+00 0.000000000000e+00
0.000000000000e+00 0.000000000000e+00 0.000000000000e+00
9.991384000000e-01 9.991384000000e-01 3.012924000000e+00
9.991384000000e-01 2.997415200000e+00 3.012924000000e+00
-1.696793340599e-17 4.995692000000e+00 5.021540000000e+00
-1.247962360934e-17 -1.058215201664e-17 5.021540000000e+00

CELLS 7 63
8 0 1 2 3 4 5 6 7
8 8 9 10 11 12 13 14 15
8 16 17 18 19 20 21 22 23
8 24 25 26 27 28 29 30 31
8 32 33 34 35 36 37 38 39
8 40 41 42 43 44 45 46 47
8 48 49 50 51 52 53 54 55

CELL_TYPES 7
12
12
12
12
12
12
12

POINT_DATA 56
SCALARS STRESS_I double 1
LOOKUP_TABLE default
4.000000000000e+01
4.000000000000e+01
4.000000000000e+01
4.000000000000e+01
4.000000000000e+01
4.000000000000e+01
4.000000000000e+01
4.000000000000e+01
4.000000000000e+01
4.000000000000e+01
4.000000000000e+01
4.000000000000e+01
4.000000000000e+01
4.000000000000e+01
4.000000000000e+01
4.000000000000e+01
4.000000000000e+01
4.000000000000e+01
4.000000000000e+01
4.000000000000e+01
4.000000000000e+01
4.000000000000e+01
4.000000000000e+01
4.000000000000e+01
4.000000000000e+01
4.000000000000e+01
4.000000000000e+01
4.000000000000e+01
4.000000000000e+01
4.000000000000e+01
4.000000000000e+01
4.000000000000e+01
4.000000000000e+01
4.000000000000e+01
4.000000000000e+01
4.000000000000e+01
4.000000000000e+01
4.000000000000e+01
4.000000000000e+01
4.000000000000e+01
4.000000000000e+01
4.000000000000e+01
4.000000000000e+01
4.000000000000e+01
4.000000000000e+01
4.000000000000e+01
4.000000000000e+01
4.000000000000e+01
4.000000000000e+01
4.000000000000e+01
4.000000000000e+01
4.000000000000e+01
4.000000000000e+01
4.000000000000e+01
4.000000000000e+01
4.000000000000e+01
SCALARS STRESS_II double 1
LOOKUP_TABLE default
3.971482575197e-13
-3.874297192856e-13
1.828809367182e-13
-1.679458506993e-12
1.355888175412e-12
-1.244868939870e-12
1.354783675339e-12
-2.683447166828e-12
-1.137724956138e-12
-7.936130480155e-13
-7.166258651462e-13
-1.009422058320e-13
1.644772313733e-12
-1.262411668408e-12
9.467665959021e-13
-8.628397047253e-13
-5.438710546948e-16
3.849258918067e-13
-8.710838055075e-13
-3.988633597123e-13
-6.787875368692e-13
-9.911358671184e-13
-1.069711124684e-12
1.715616070784e-12
-5.150122664388e-13
7.647441824549e-13
-9.449473580180e-13
-7.142208612971e-13
2.454850671508e-12
-1.852614771636e-12
1.438717822927e-12
-7.736259666519e-13
2.859196280235e-13
-1.436383739633e-12
-1.935989412776e-12
6.706997900203e-13
1.109983482455e-12
-5.907637322473e-13
1.685836463711e-12
-1.174860814285e-12
2.414415825963e-12
-1.916865044175e-12
4.601731363292e-13
-1.747348377870e-12
-7.825641585817e-14
6.371253532452e-13
-6.469407707597e-13
1.606002597280e-12
-1.321341578122e-12
1.693686913531e-13
-7.494230225372e-13
-9.703463694247e-13
1.388911484721e-12
-1.401090011175e-12
1.001597347030e-12
-5.690489802182e-13
SCALARS STRESS_III double 1
LOOKUP_TABLE default
-4.958213805373e-27
-1.554555995190e-27
-4.851453796288e-27
1.269295182851e-26
1.098767556251e-26
8.818413573568e-27
1.078242914281e-26
3.904341117881e-26
-2.706866577815e-26
7.159353946023e-28
-1.013679972665e-27
-2.848513104645e-27
-2.388659509298e-26
5.952307136280e-27
1.076434656356e-27
-3.784900909123e-27
-2.977208976134e-28
-8.205998075278e-27
4.396460472922e-27
8.580628510809e-28
2.480389956244e-28
-9.090962695729e-27
4.921928768266e-27
1.602842061902e-26
-1.595927217175e-26
-1.206325270763e-26
1.252733766377e-27
1.434688661514e-28
2.674698204121e-26
-1.306591740132e-27
8.779413603096e-27
-5.756898608619e-27
-4.375549603811e-27
1.151307925495e-26
-4.883801245777e-27
-4.671632208868e-27
7.452139567589e-27
9.026364189159e-28
-2.743493225038e-26
5.932570997333e-27
3.447070206127e-26
1.992042011091e-26
-3.111893067425e-27
1.823388597699e-26
-6.853900246347e-27
1.934783910799e-27
-1.398361892940e-27
9.804258313397e-27
1.058213656567e-26
-6.435641204138e-27
-6.884784083549e-27
3.727219838816e-27
6.611655270507e-27
1.038080226505e-26
-1.944096419077e-28
2.118285884776e-28
SCALARS STRESS_VONMISES double 1
LOOKUP_TABLE default
4.000000000000e+01
4.000000000000e+01
4.000000000000e+01
4.000000000000e+01
4.000000000000e+01
4.000000000000e+01
4.000000000000e+01
4.000000000000e+01
4.000000000000e+01
4.000000000000e+01
4.000000000000e+01
4.000000000000e+01
4.000000000000e+01
4.000000000000e+01
4.000000000000e+01
4.000000000000e+01
4.000000000000e+01
4.000000000000e+01
4.000000000000e+01
4.000000000000e+01
4.000000000000e+01
4.000000000000e+01
4.000000000000e+01
4.000000000000e+01
4.000000000000e+01
4.000000000000e+01
4.000000000000e+01
4.000000000000e+01
4.000000000000e+01
4.000000000000e+01
4.000000000000e+01
4.000000000000e+01
4.000000000000e+01
4.000000000000e+01
4.000000000000e+01
4.000000000000e+01
4.000000000000e+01
4.000000000000e+01
4.000000000000e+01
4.000000000000e+01
4.000000000000e+01
4.000000000000e+01
4.000000000000e+01
4.000000000000e+01
4.000000000000e+01
4.000000000000e+01
4.000000000000e+01
4.000000000000e+01
4.000000000000e+01
4.000000000000e+01
4.000000000000e+01
4.000000000000e+01
4.000000000000e+01
4.000000000000e+01
4.000000000000e+01
4.000000000000e+01
SCALARS STRESS_XX double 1
LOOKUP_TABLE default
4.554971570826e-15
-3.895626560108e-15
7.566379988232e-15
-2.595498022414e-14
1.500584188118e-14
-1.608777793963e-14
1.468658122471e-14
-2.236808686618e-14
1.128441963776e-14
-1.745967752779e-14
-2.769722353329e-15
-8.830258567112e-15
-7.000240263373e-15
-9.599443641666e-15
3.592568892221e-15
3.692912022434e-15
-2.636922757264e-15
1.793038799525e-14
-1.040421226074e-14
-4.064842899024e-15
-4.250731664312e-15
-2.790958021018e-14
-8.021218279138e-15
2.869897903900e-14
-2.860921786356e-15
-1.705294487634e-15
-9.632709941454e-15
-1.331986342866e-14
2.623054415960e-14
-7.244578328479e-16
1.146515022720e-14
5.313519317666e-15
1.020105164967e-14
-1.262980245370e-14
-4.895148597413e-14
2.013753744783e-14
1.378517166913e-14
-1.250475415353e-14
5.255430481727e-14
-2.286957875869e-14
3.406889601484e-14
-2.684020364319e-14
-4.279907705483e-15
-1.727321646738e-14
1.071920124831e-14
7.725298455605e-15
-6.313320399213e-15
2.661815903827e-14
-1.735779892251e-14
1.049939721511e-14
-5.085848979058e-15
-6.303471605368e-15
2.712377601787e-14
-2.428317272305e-14
1.408264099986e-14
-1.344148823037e-14
SCALARS STRESS_YY double 1
LOOKUP_TABLE default
5.373734867168e-15
-5.790116422032e-15
-2.994356570276e-15
-1.603148245068e-14
1.889136250413e-14
-1.503394555712e-14
1.918301065876e-14
-4.471809230451e-14
-3.972754354120e-14
-2.380648672601e-15
-1.514592427533e-14
6.306703421312e-15
4.811954810669e-14
-2.196084806853e-14
2.007659600533e-14
-2.526390464057e-14
2.623325980896e-15
-8.307240700087e-15
-1.137288287695e-14
-5.906741093783e-15
-1.271895675742e-14
3.131183532220e-15
-1.872155983796e-14
1.419142273060e-14
-1.001438487461e-14
2.082389904901e-14
-1.399097400900e-14
-4.535658103768e-15
3.514072262810e-14
-4.559091145806e-14
2.450279534597e-14
-2.465416848396e-14
-3.053060949081e-15
-2.327979103713e-14
5.517506547243e-16
-3.370042697322e-15
1.396441539225e-14
-2.264339152651e-15
-1.040839322450e-14
-6.501941598437e-15
2.629149963423e-14
-2.108142246118e-14
1.578423611371e-14
-2.641049297938e-14
-1.267561164476e-14
8.202835375526e-15
-9.860198869779e-15
1.353190589373e-14
-1.567574053053e-14
-6.265179931281e-15
-1.364972658437e-14
-1.795518763025e-14
7.599011100166e-15
-1.074407755631e-14
1.095729267588e-14
-7.847362750883e-16
SCALARS STRESS_ZZ double 1
LOOKUP_TABLE default
4.000000000000e+01
4.000000000000e+01
4.000000000000e+01
4.000000000000e+01
4.000000000000e+01
4.000000000000e+01
4.000000000000e+01
4.000000000000e+01
4.000000000000e+01
4.000000000000e+01
4.000000000000e+01
4.000000000000e+01
4.000000000000e+01
4.000000000000e+01
4.000000000000e+01
4.000000000000e+01
4.000000000000e+01
4.000000000000e+01
4.000000000000e+01
4.000000000000e+01
4.000000000000e+01
4.000000000000e+01
4.000000000000e+01
4.000000000000e+01
4.000000000000e+01
4.000000000000e+01
4.000000000000e+01
4.000000000000e+01
4.000000000000e+01
4.000000000000e+01
4.000000000000e+01
4.000000000000e+01
4.000000000000e+01
4.000000000000e+01
4.000000000000e+01
4.000000000000e+01
4.000000000000e+01
4.000000000000e+01
4.000000000000e+01
4.000000000000e+01
4.000000000000e+01
4.000000000000e+01
4.000000000000e+01
4.000000000000e+01
4.000000000000e+01
4.000000000000e+01
4.000000000000e+01
4.000000000000e+01
4.000000000000e+01
4.000000000000e+01
4.000000000000e+01
4.000000000000e+01
4.000000000000e+01
4.000000000000e+01
4.000000000000e+01
4.000000000000e+01
SCALARS STRESS_XY double 1
LOOKUP_TABLE default
-1.218328997781e-14
-7.837093287663e-15
-9.931258997541e-15
-9.938461362718e-15
2.964609518018e-15
-4.626276941583e-15
3.488855916215e-15
-4.916593707718e-15
-1.511338386853e-14
-4.864871351383e-15
-8.203170383688e-15
-3.939924580477e-15
1.613432611585e-14
7.874277423992e-15
6.724261138710e-15
-1.151149663305e-15
-7.249237626045e-16
7.496526059411e-15
2.900754323492e-15
-1.599500957929e-15
-6.918373893854e-15
-1.182725874613e-14
-5.207830525236e-15
-2.562972493733e-15
-2.067926923657e-14
-1.631166568537e-14
-1.017116759609e-14
-7.538409968124e-15
1.590866825559e-14
8.105151844091e-15
7.838551495687e-15
3.594727349181e-15
-8.845581250777e-15
-2.488409248646e-15
-9.751205910475e-15
-6.994744041322e-15
2.489653440036e-15
2.397726829983e-15
1.178420281908e-14
6.183773415427e-16
-5.827076074776e-15
-8.235239472741e-15
-3.200351998980e-15
5.890779391415e-16
5.956095532567e-15
3.872951547353e-15
9.859495016906e-15
1.072790591566e-14
-2.746440960361e-15
-9.752456991999e-15
-1.554155880542e-14
-4.472082224863e-15
6.389248255899e-15
-1.174833785454e-15
1.261617454431e-14
2.291791590350e-15
SCALARS STRESS_YZ double 1
LOOKUP_TABLE default
3.773449571513e-15
7.023593248494e-15
-5.199820206074e-15
-2.212696633302e-15
-4.695042500898e-15
4.974376407057e-15
-3.509771603165e-15
9.643629908691e-15
7.507720961997e-15
-1.304499149770e-14
-5.573841564544e-15
-1.859970125734e-14
-4.946546488125e-14
9.523628031024e-15
-7.924054596231e-15
1.978959637230e-14
-1.005608225513e-15
-3.171038745641e-14
2.199992151228e-14
1.877844559845e-15
9.308367782149e-15
1.610776843908e-14
-1.831227240296e-14
-1.824964865172e-14
4.300847100882e-15
5.344783685523e-14
-3.923698214002e-14
-7.481334220812e-16
1.614434322782e-14
-1.022805632631e-13
1.058332769419e-13
-1.933488512620e-15
5.768106289484e-15
8.446447799502e-15
-8.718454494983e-15
-2.671724532118e-15
-1.737178658371e-14
-1.209424169540e-14
2.114477185355e-15
2.100670934437e-15
1.004353285152e-14
2.373058793003e-14
-1.194898991320e-14
-1.484724019369e-14
-2.002543319601e-14
-1.446264765641e-14
9.274347776962e-15
7.577701364404e-15
5.393620629341e-15
9.778715429053e-15
-2.901740179727e-15
-8.196790692741e-15
-1.386262749211e-14
-7.235309349549e-15
9.816434808023e-15
3.432938563987e-15
SCALARS STRESS_ZX double 1
LOOKUP_TABLE default
-1.063432562956e-14
-3.029903406377e-15
3.932476284195e-16
-7.626492680408e-15
-5.736195934428e-15
6.182098374616e-16
-5.033696805465e-15
-1.563644358010e-15
-2.210841709546e-14
4.082453261002e-15
-7.435967545705e-15
-5.890694271139e-15
-5.609152993641e-15
-8.486693897757e-15
-7.590048813264e-15
5.249722911924e-16
1.339462515421e-14
-2.060951127494e-14
-8.258423199764e-15
1.027646610324e-14
-1.383501499028e-14
8.930392222773e-15
-2.181372605496e-15
-2.080180754358e-14
-5.626553881067e-15
8.897726282370e-15
4.584370866816e-15
-9.417254250161e-15
3.227503355074e-14
-1.633991992114e-14
-9.472479253835e-15
1.197446658058e-14
-4.345405956977e-16
-1.314095822174e-14
-3.186743292190e-16
-1.063068564048e-14
-8.923932350785e-15
6.051015663899e-15
-4.211475682306e-14
4.536518151148e-14
-3.541043262332e-15
1.351710839859e-14
5.035858824234e-15
-1.725571084268e-14
1.272770956977e-14
-4.948749649824e-15
-1.200207908242e-14
1.890140392046e-14
-2.067234450073e-14
4.187817656619e-14
9.049748388485e-15
-1.396661386757e-14
6.289270360722e-14
-7.396304968274e-14
3.932409131443e-14
3.418922838518e-15
