# vtk DataFile Version 3.0
STAPpp FEM Output
ASCII
DATASET UNSTRUCTURED_GRID

POINTS 8 double
0.000000000000e+00 1.000000000000e-01 -1.000000000000e-01
0.000000000000e+00 1.000000000000e-01 1.000000000000e-01
0.000000000000e+00 -1.000000000000e-01 1.000000000000e-01
0.000000000000e+00 -1.000000000000e-01 -1.000000000000e-01
5.500296175000e+00 1.000000000000e-01 -1.000000000000e-01
5.500296175000e+00 1.000000000000e-01 1.000000000000e-01
5.500296175000e+00 -1.000000000000e-01 1.000000000000e-01
5.500296175000e+00 -1.000000000000e-01 -1.000000000000e-01

CELLS 1 9
8 0 1 2 3 4 5 6 7

CELL_TYPES 1
12

POINT_DATA 8
SCALARS STRESS_I double 1
LOOKUP_TABLE default
1.000000000000e+05
1.000000000000e+05
1.000000000000e+05
1.000000000000e+05
1.000000000000e+05
1.000000000000e+05
1.000000000000e+05
1.000000000000e+05
SCALARS STRESS_II double 1
LOOKUP_TABLE default
0.000000000000e+00
0.000000000000e+00
0.000000000000e+00
0.000000000000e+00
0.000000000000e+00
0.000000000000e+00
0.000000000000e+00
0.000000000000e+00
SCALARS STRESS_III double 1
LOOKUP_TABLE default
0.000000000000e+00
0.000000000000e+00
0.000000000000e+00
0.000000000000e+00
0.000000000000e+00
0.000000000000e+00
0.000000000000e+00
0.000000000000e+00
SCALARS STRESS_VONMISES double 1
LOOKUP_TABLE default
1.000000000000e+05
1.000000000000e+05
1.000000000000e+05
1.000000000000e+05
1.000000000000e+05
1.000000000000e+05
1.000000000000e+05
1.000000000000e+05
SCALARS STRESS_XX double 1
LOOKUP_TABLE default
1.000000000000e+05
1.000000000000e+05
1.000000000000e+05
1.000000000000e+05
1.000000000000e+05
1.000000000000e+05
1.000000000000e+05
1.000000000000e+05
SCALARS STRESS_YY double 1
LOOKUP_TABLE default
0.000000000000e+00
0.000000000000e+00
0.000000000000e+00
0.000000000000e+00
0.000000000000e+00
0.000000000000e+00
0.000000000000e+00
0.000000000000e+00
SCALARS STRESS_ZZ double 1
LOOKUP_TABLE default
0.000000000000e+00
0.000000000000e+00
0.000000000000e+00
0.000000000000e+00
0.000000000000e+00
0.000000000000e+00
0.000000000000e+00
0.000000000000e+00
SCALARS STRESS_XY double 1
LOOKUP_TABLE default
0.000000000000e+00
0.000000000000e+00
0.000000000000e+00
0.000000000000e+00
0.000000000000e+00
0.000000000000e+00
0.000000000000e+00
0.000000000000e+00
SCALARS STRESS_YZ double 1
LOOKUP_TABLE default
0.000000000000e+00
0.000000000000e+00
0.000000000000e+00
0.000000000000e+00
0.000000000000e+00
0.000000000000e+00
0.000000000000e+00
0.000000000000e+00
SCALARS STRESS_ZX double 1
LOOKUP_TABLE default
0.000000000000e+00
0.000000000000e+00
0.000000000000e+00
0.000000000000e+00
0.000000000000e+00
0.000000000000e+00
0.000000000000e+00
0.000000000000e+00
