# vtk DataFile Version 3.0
STAPpp FEM Output
ASCII
DATASET UNSTRUCTURED_GRID

POINTS 24 double
0.000000000000e+00 0.000000000000e+00 0.000000000000e+00
1.000000000000e+00 0.000000000000e+00 0.000000000000e+00
1.000000001123e+00 1.000000001009e+00 1.196033201912e-09
1.528253965921e-09 1.000000000560e+00 1.528253965921e-09
0.000000000000e+00 0.000000000000e+00 1.000000000000e+00
1.000000000000e+00 0.000000000000e+00 1.000000000000e+00
1.000000002231e+00 9.999999944818e-01 1.000000002231e+00
1.196033201912e-09 1.000000001009e+00 1.000000001123e+00
1.000000002231e+00 9.699999944818e-01 9.700000022308e-01
1.000000002231e+00 9.699999944818e-01 1.030000002231e+00
1.000000002231e+00 1.029999994482e+00 1.030000002231e+00
1.000000002231e+00 1.029999994482e+00 9.700000022308e-01
3.999999800982e+00 9.699865778741e-01 9.700000022308e-01
3.999999800982e+00 9.699865778741e-01 1.030000002231e+00
4.000000203480e+00 1.029986577874e+00 1.030000002231e+00
4.000000203480e+00 1.029986577874e+00 9.700000022308e-01
3.900000000000e+00 0.000000000000e+00 9.000000000000e-01
3.900000000000e+00 0.000000000000e+00 1.100000000000e+00
4.100000000000e+00 0.000000000000e+00 1.100000000000e+00
4.100000000000e+00 0.000000000000e+00 9.000000000000e-01
3.900000002231e+00 9.999865778741e-01 9.000000022308e-01
3.900000002231e+00 9.999865778741e-01 1.100000002231e+00
4.100000002231e+00 9.999865778741e-01 1.100000002231e+00
4.100000002231e+00 9.999865778741e-01 9.000000022308e-01

CELLS 3 27
8 0 1 2 3 4 5 6 7
8 8 9 10 11 12 13 14 15
8 16 17 18 19 20 21 22 23

CELL_TYPES 3
12
12
12

POINT_DATA 24
SCALARS STRESS_I double 1
LOOKUP_TABLE default
2.600919333765e+00
4.685939087943e+00
7.609965078819e+00
-1.158542654505e+00
4.685939087943e+00
-2.561825213374e+01
-1.601073816372e+01
7.609965078819e+00
3.737216651061e+03
-3.737216651061e+03
-3.737216651061e+03
3.737216651061e+03
-4.982955534748e+03
4.982955534748e+03
4.982955534748e+03
-4.982955534748e+03
-2.492502497459e+04
-2.492502497459e+04
-2.492502497459e+04
-2.492502497459e+04
-2.492502497459e+04
-2.492502497459e+04
-2.492502497459e+04
-2.492502497459e+04
SCALARS STRESS_II double 1
LOOKUP_TABLE default
-3.414413518347e-01
5.252892245393e+00
1.850298943900e+00
-4.400583051992e+00
5.252892245393e+00
1.929763401739e+02
3.490223960365e+01
1.850298943900e+00
-1.629746017342e-31
-1.629746017342e-31
-1.629746017342e-31
-1.629746017342e-31
-1.629746017342e-31
-1.629746017342e-31
-1.629746017342e-31
-1.629746017342e-31
0.000000000000e+00
0.000000000000e+00
0.000000000000e+00
0.000000000000e+00
0.000000000000e+00
0.000000000000e+00
0.000000000000e+00
0.000000000000e+00
SCALARS STRESS_III double 1
LOOKUP_TABLE default
-9.257012735231e-01
1.465276529516e+00
-1.469211668534e+01
1.741826737958e+00
1.465276529516e+00
-4.521087290884e+02
4.363359736801e+01
-1.469211668534e+01
0.000000000000e+00
0.000000000000e+00
0.000000000000e+00
0.000000000000e+00
0.000000000000e+00
0.000000000000e+00
0.000000000000e+00
0.000000000000e+00
0.000000000000e+00
0.000000000000e+00
0.000000000000e+00
0.000000000000e+00
0.000000000000e+00
0.000000000000e+00
0.000000000000e+00
0.000000000000e+00
SCALARS STRESS_VONMISES double 1
LOOKUP_TABLE default
2.665749938120e+00
4.087191320518e+00
7.487407398890e+00
2.396414850208e+00
4.087191320518e+00
2.152483454557e+01
1.488091048772e+01
7.487407398890e+00
3.737216651061e+03
3.737216651061e+03
3.737216651061e+03
3.737216651061e+03
4.982955534748e+03
4.982955534748e+03
4.982955534748e+03
4.982955534748e+03
2.492502497459e+04
2.492502497459e+04
2.492502497459e+04
2.492502497459e+04
2.492502497459e+04
2.492502497459e+04
2.492502497459e+04
2.492502497459e+04
SCALARS STRESS_XX double 1
LOOKUP_TABLE default
6.002121539457e-01
1.081370558756e+00
1.177767019994e+00
-8.457347646195e-01
1.081370558756e+00
-5.911904338555e+00
-2.216706657778e+00
3.234224859731e+00
3.737216651061e+03
-3.737216651061e+03
-3.737216651061e+03
3.737216651061e+03
-4.982955534748e+03
4.982955534748e+03
4.982955534748e+03
-4.982955534748e+03
-2.492502497459e+04
-2.492502497459e+04
-2.492502497459e+04
-2.492502497459e+04
-2.492502497459e+04
-2.492502497459e+04
-2.492502497459e+04
-2.492502497459e+04
SCALARS STRESS_YY double 1
LOOKUP_TABLE default
1.400495025873e+00
2.523197970431e+00
3.197973199095e+00
5.329268747343e-01
2.523197970431e+00
-1.379444345663e+01
-1.157732484816e+01
3.197973199095e+00
0.000000000000e+00
0.000000000000e+00
0.000000000000e+00
0.000000000000e+00
0.000000000000e+00
0.000000000000e+00
0.000000000000e+00
0.000000000000e+00
0.000000000000e+00
0.000000000000e+00
0.000000000000e+00
0.000000000000e+00
0.000000000000e+00
0.000000000000e+00
0.000000000000e+00
0.000000000000e+00
SCALARS STRESS_ZZ double 1
LOOKUP_TABLE default
6.002121539457e-01
1.081370558756e+00
3.234224859731e+00
-8.457347646195e-01
1.081370558756e+00
-5.911904338555e+00
-2.216706657778e+00
1.177767019994e+00
0.000000000000e+00
0.000000000000e+00
0.000000000000e+00
0.000000000000e+00
0.000000000000e+00
0.000000000000e+00
0.000000000000e+00
0.000000000000e+00
0.000000000000e+00
0.000000000000e+00
0.000000000000e+00
0.000000000000e+00
0.000000000000e+00
0.000000000000e+00
0.000000000000e+00
0.000000000000e+00
SCALARS STRESS_XY double 1
LOOKUP_TABLE default
1.091532009086e+00
8.023426253729e-01
1.123114895246e+00
1.412304278959e+00
8.542484121932e-01
1.593287948349e+00
-3.068895316526e+00
-3.807934852681e+00
-2.854598060447e-16
2.854598060447e-16
2.854598060447e-16
-2.854598060447e-16
-2.854598060447e-16
2.854598060447e-16
2.854598060447e-16
-2.854598060447e-16
0.000000000000e+00
0.000000000000e+00
0.000000000000e+00
0.000000000000e+00
0.000000000000e+00
0.000000000000e+00
0.000000000000e+00
0.000000000000e+00
SCALARS STRESS_YZ double 1
LOOKUP_TABLE default
1.091532009086e+00
8.542484121932e-01
-3.807934852681e+00
1.412304278959e+00
8.023426253729e-01
1.593287948349e+00
-3.068895316526e+00
1.123114895246e+00
0.000000000000e+00
0.000000000000e+00
0.000000000000e+00
0.000000000000e+00
0.000000000000e+00
0.000000000000e+00
0.000000000000e+00
0.000000000000e+00
0.000000000000e+00
0.000000000000e+00
0.000000000000e+00
0.000000000000e+00
0.000000000000e+00
0.000000000000e+00
0.000000000000e+00
0.000000000000e+00
SCALARS STRESS_ZX double 1
LOOKUP_TABLE default
-1.040834085586e-16
-2.081668171172e-16
5.536617260831e-01
-4.745671937855e-01
-3.330669073875e-16
-3.330669073875e-16
1.581890645952e+00
5.536617260831e-01
2.854598060447e-16
2.854598060447e-16
-2.854598060447e-16
-2.854598060447e-16
2.854598060447e-16
2.854598060447e-16
-2.854598060447e-16
-2.854598060447e-16
0.000000000000e+00
0.000000000000e+00
0.000000000000e+00
0.000000000000e+00
0.000000000000e+00
0.000000000000e+00
0.000000000000e+00
0.000000000000e+00
